
VARIABLES = "x", "y", "T", "<greek>r</greek>", "P", "u", "v", "cons:<greek>r</greek>", "cons:<greek>r</greek>u", "cons:<greek>r</greek>v", "cons:<greek>r</greek>e", "src:mass", "src:X-mmtm", "src:Y-mmtm", "src:energy", "residual:mass", "residual:X-mmtm", "residual:Y-mmtm", "residual:energy"

ZONE
T="block1"
ZONETYPE=ORDERED
I=129
J=33
DATAPACKING=BLOCK
VARLOCATION=([1-2]=NODAL,[3-19]=CELLCENTERED)
DT=(DOUBLE,DOUBLE,DOUBLE,DOUBLE,DOUBLE,DOUBLE,DOUBLE,DOUBLE,DOUBLE,DOUBLE,DOUBLE,DOUBLE,DOUBLE,DOUBLE,DOUBLE,DOUBLE,DOUBLE,DOUBLE,DOUBLE)
STRANDID=1
SOLUTIONTIME=  2.800000000000000E+01
  5.009999999999877E+02
  4.257658366569118E+02
  3.618475034566002E+02
  3.075430074994179E+02
  2.614063494623268E+02
  2.222090200826410E+02
  1.889072878838248E+02
  1.606144070934201E+02
  1.365770057161877E+02
  1.161550250331131E+02
  9.880467636294051E+01
  8.406396126540575E+01
  7.154036962368644E+01
  6.090042803531863E+01
  5.186082021013587E+01
  4.418084293258763E+01
  3.765599670869022E+01
  3.211254043181182E+01
  2.740286507101732E+01
  2.340156319431791E+01
  2.000208966759538E+01
  1.711392461157117E+01
  1.466016307312454E+01
  1.257546722965071E+01
  1.080432659854102E+01
  9.299579925309118E+00
  8.021159391766371E+00
  6.935023705502695E+00
  6.012251661387976E+00
  5.228272038796939E+00
  4.562209328555602E+00
  3.996327867877055E+00
  3.515559581924430E+00
  3.107102756884309E+00
  2.760081160833575E+00
  2.465254435600695E+00
  2.214772048046819E+00
  2.001964249075639E+00
  1.821164474108557E+00
  1.667558455973035E+00
  1.537056032439897E+00
  1.426182234949771E+00
  1.331984758480991E+00
  1.251955348702034E+00
  1.183963013135688E+00
  1.126197277907411E+00
  1.077119979140298E+00
  1.035424305316389E+00
  1.000000000000000E+00
  9.620996791110357E-01
  9.101125162048117E-01
  8.414772628755043E-01
  7.552733188435461E-01
  6.535087338016042E-01
  5.417756194714026E-01
  4.284523923254704E-01
  3.224434026775650E-01
  2.306138613537426E-01
  1.563522886502110E-01
  9.974307601931948E-02
  5.874678730122953E-02
  3.052200050577873E-02
  1.242804890401945E-02
  2.678313991048844E-03
  0.000000000000000E+00
  2.678313991048844E-03
  1.242804890401934E-02
  3.052200050577873E-02
  5.874678730122947E-02
  9.974307601931920E-02
  1.563522886502109E-01
  2.306138613537423E-01
  3.224434026775650E-01
  4.284523923254706E-01
  5.417756194714024E-01
  6.535087338016046E-01
  7.552733188435461E-01
  8.414772628755047E-01
  9.101125162048120E-01
  9.620996791110360E-01
  1.000000000000000E+00
  1.035424305316389E+00
  1.077119979140298E+00
  1.126197277907411E+00
  1.183963013135688E+00
  1.251955348702034E+00
  1.331984758480991E+00
  1.426182234949771E+00
  1.537056032439897E+00
  1.667558455973035E+00
  1.821164474108557E+00
  2.001964249075639E+00
  2.214772048046819E+00
  2.465254435600695E+00
  2.760081160833575E+00
  3.107102756884309E+00
  3.515559581924430E+00
  3.996327867877055E+00
  4.562209328555602E+00
  5.228272038796939E+00
  6.012251661387976E+00
  6.935023705502695E+00
  8.021159391766371E+00
  9.299579925309118E+00
  1.080432659854102E+01
  1.257546722965071E+01
  1.466016307312454E+01
  1.711392461157117E+01
  2.000208966759538E+01
  2.340156319431791E+01
  2.740286507101732E+01
  3.211254043181182E+01
  3.765599670869022E+01
  4.418084293258763E+01
  5.186082021013587E+01
  6.090042803531863E+01
  7.154036962368644E+01
  8.406396126540575E+01
  9.880467636294051E+01
  1.161550250331131E+02
  1.365770057161877E+02
  1.606144070934201E+02
  1.889072878838248E+02
  2.222090200826410E+02
  2.614063494623268E+02
  3.075430074994179E+02
  3.618475034566002E+02
  4.257658366569118E+02
  5.009999999999877E+02
  5.009999999999877E+02
  4.257656425398999E+02
  3.618474784364722E+02
  3.075429861710656E+02
  2.614063313413523E+02
  2.222090046872092E+02
  1.889072748039912E+02
  1.606143959808999E+02
  1.365769962750811E+02
  1.161550170120263E+02
  9.880466954829146E+01
  8.406395547573747E+01
  7.154036470483526E+01
  6.090042385630939E+01
  5.186081665969479E+01
  4.418083991617977E+01
  3.765599414600300E+01
  3.211253825461748E+01
  2.740286322135769E+01
  2.340156162296322E+01
  2.000208833273648E+01
  1.711392347771063E+01
  1.466016211013767E+01
  1.257546641199234E+01
  1.080432590457783E+01
  9.299579336761258E+00
  8.021158893245351E+00
  6.935023284135692E+00
  6.012251306521717E+00
  5.228271741777154E+00
  4.562209082580866E+00
  3.996327667928557E+00
  3.515559424776062E+00
  3.107102641200650E+00
  2.760081087368004E+00
  2.465254407514129E+00
  2.214772071383722E+00
  2.001964333465404E+00
  1.821164633817168E+00
  1.667558711521824E+00
  1.537056413132943E+00
  1.426182782768515E+00
  1.331985533797297E+00
  1.251956437969625E+00
  1.183964538344229E+00
  1.126199408476114E+00
  1.077122949515541E+00
  1.035429291177944E+00
  1.000147692097080E+00
  9.627963328876831E-01
  9.111439938736550E-01
  8.427522565439250E-01
  7.566980173175812E-01
  6.549590978297769E-01
  5.430936868594894E-01
  4.294557065761427E-01
  3.229401720626499E-01
  2.304130679780232E-01
  1.552590410209571E-01
  9.753345185148041E-02
  5.511635188889150E-02
  2.499967940133077E-02
  4.353725121196811E-03
 -8.071814944641199E-03
 -1.178059982746368E-02
 -8.071814944641240E-03
  4.353725121196675E-03
  2.499967940133076E-02
  5.511635188889145E-02
  9.753345185148013E-02
  1.552590410209569E-01
  2.304130679780229E-01
  3.229401720626499E-01
  4.294557065761427E-01
  5.430936868594892E-01
  6.549590978297772E-01
  7.566980173175814E-01
  8.427522565439255E-01
  9.111439938736553E-01
  9.627963328876834E-01
  1.000147692097080E+00
  1.035429291177944E+00
  1.077122949515428E+00
  1.126199408456338E+00
  1.183964538109883E+00
  1.251956437218805E+00
  1.331985532574591E+00
  1.426182781422260E+00
  1.537056411990015E+00
  1.667558710735044E+00
  1.821164633386658E+00
  2.001964333312470E+00
  2.214772071411089E+00
  2.465254407638156E+00
  2.760081087529336E+00
  3.107102641363109E+00
  3.515559424921051E+00
  3.996327668048977E+00
  4.562209082676214E+00
  5.228271741850149E+00
  6.012251306576245E+00
  6.935023284175689E+00
  8.021158893274293E+00
  9.299579336781987E+00
  1.080432590459256E+01
  1.257546641200275E+01
  1.466016211014499E+01
  1.711392347771575E+01
  2.000208833274006E+01
  2.340156162296570E+01
  2.740286322135940E+01
  3.211253825461865E+01
  3.765599414600378E+01
  4.418083991618030E+01
  5.186081665969513E+01
  6.090042385630961E+01
  7.154036470483538E+01
  8.406395547573756E+01
  9.880466954829149E+01
  1.161550170120263E+02
  1.365769962750811E+02
  1.606143959808999E+02
  1.889072748039912E+02
  2.222090046872092E+02
  2.614063313413523E+02
  3.075429861710656E+02
  3.618474784364722E+02
  4.257656425398999E+02
  5.009999999999877E+02
  5.009999999999877E+02
  4.257642496623491E+02
  3.618474020466581E+02
  3.075429078890541E+02
  2.614062648976082E+02
  2.222089482373183E+02
  1.889072268446176E+02
  1.606143552350067E+02
  1.365769616577035E+02
  1.161549876013885E+02
  9.880464456126313E+01
  8.406393424698172E+01
  7.154034666909402E+01
  6.090040853335429E+01
  5.186080364154297E+01
  4.418082885623502E+01
  3.765598474983348E+01
  3.211253027212541E+01
  2.740285644013398E+01
  2.340155586265176E+01
  2.000208344026079E+01
  1.711391932323953E+01
  1.466015858368770E+01
  1.257546342058371E+01
  1.080432336987819E+01
  9.299577193167972E+00
  8.021157086373236E+00
  6.935021769693478E+00
  6.012250049577400E+00
  5.228270716430088E+00
  4.562208272076943E+00
  3.996327065274298E+00
  3.515559033928828E+00
  3.107102478938801E+00
  2.760081185986119E+00
  2.465254818565705E+00
  2.214772870849135E+00
  2.001965629027572E+00
  1.821166575482539E+00
  1.667561507730281E+00
  1.537060355749532E+00
  1.426188285570255E+00
  1.331993189148897E+00
  1.251967093821812E+00
  1.183979394746713E+00
  1.126220147018428E+00
  1.077152393035588E+00
  1.035488190144654E+00
  1.000431995359910E+00
  9.636863321015834E-01
  9.125461462572751E-01
  8.445061581989018E-01
  7.586634588875104E-01
  6.569614544387862E-01
  5.449140184746583E-01
  4.308419120256066E-01
  3.236269246625573E-01
  2.301350402764212E-01
  1.537426102600656E-01
  9.445440507481191E-02
  5.000164352874351E-02
  1.709198317817075E-02
 -7.179652376230632E-03
 -2.302735150246989E-02
 -2.802917081709620E-02
 -2.302735150246998E-02
 -7.179652376230815E-03
  1.709198317817074E-02
  5.000164352874345E-02
  9.445440507481166E-02
  1.537426102600655E-01
  2.301350402764210E-01
  3.236269246625573E-01
  4.308419120256066E-01
  5.449140184746580E-01
  6.569614544387864E-01
  7.586634588875105E-01
  8.445061581989023E-01
  9.125461462572755E-01
  9.636863321015836E-01
  1.000431995359906E+00
  1.035488190144529E+00
  1.077152393029345E+00
  1.126220146754096E+00
  1.183979392198623E+00
  1.251967085904049E+00
  1.331993176289266E+00
  1.426188271402137E+00
  1.537060343719470E+00
  1.667561499454507E+00
  1.821166570961992E+00
  2.001965627430221E+00
  2.214772871147999E+00
  2.465254819879068E+00
  2.760081187689202E+00
  3.107102480651434E+00
  3.515559035456016E+00
  3.996327066541963E+00
  4.562208273080242E+00
  5.228270717197926E+00
  6.012250050150828E+00
  6.935021770114015E+00
  8.021157086677487E+00
  9.299577193385852E+00
  1.080432337003302E+01
  1.257546342069308E+01
  1.466015858376460E+01
  1.711391932329338E+01
  2.000208344029834E+01
  2.340155586267781E+01
  2.740285644015195E+01
  3.211253027213770E+01
  3.765598474984177E+01
  4.418082885624055E+01
  5.186080364154655E+01
  6.090040853335654E+01
  7.154034666909537E+01
  8.406393424698250E+01
  9.880464456126354E+01
  1.161549876013887E+02
  1.365769616577036E+02
  1.606143552350068E+02
  1.889072268446176E+02
  2.222089482373183E+02
  2.614062648976082E+02
  3.075429078890541E+02
  3.618474020466581E+02
  4.257642496623491E+02
  5.009999999999877E+02
  5.009999999999877E+02
  4.257626706122541E+02
  3.618473182721883E+02
  3.075427710747556E+02
  2.614061501578221E+02
  2.222088507327334E+02
  1.889071440057466E+02
  1.606142848557774E+02
  1.365769018640912E+02
  1.161549368012441E+02
  9.880460140192243E+01
  8.406389757925302E+01
  7.154031551666549E+01
  6.090038206680788E+01
  5.186078115628448E+01
  4.418080975375468E+01
  3.765596852180108E+01
  3.211251648690105E+01
  2.740284473134132E+01
  2.340154591951858E+01
  2.000207499948215E+01
  1.711391216216462E+01
  1.466015251467394E+01
  1.257545828640218E+01
  1.080431904009538E+01
  9.299573561472021E+00
  8.021154068859182E+00
  6.935019304174642E+00
  6.012248096048832E+00
  5.228269258876559E+00
  4.562207321891948E+00
  3.996326666638695E+00
  3.515559271592756E+00
  3.107103488975219E+00
  2.760083170285312E+00
  2.465258064223164E+00
  2.214777776373659E+00
  2.001972740824306E+00
  1.821176640877183E+00
  1.667575555474226E+00
  1.537079821613724E+00
  1.426215207720998E+00
  1.332030500337507E+00
  1.252019029864068E+00
  1.184052074058538E+00
  1.126323090254065E+00
  1.077307340012927E+00
  1.035765954382305E+00
  1.000921581018825E+00
  9.646983542413489E-01
  9.143549279487729E-01
  8.468788186482020E-01
  7.613573360780876E-01
  6.597173116002920E-01
  5.474230865035490E-01
  4.327537823815129E-01
  3.245738895115968E-01
  2.297472292856395E-01
  1.516263916577699E-01
  9.009533483504485E-02
  4.259008346836693E-02
  5.560764159969984E-03
 -2.354413336400907E-02
 -4.356440046382730E-02
 -5.010541420249748E-02
 -4.356440046382743E-02
 -2.354413336400929E-02
  5.560764159969951E-03
  4.259008346836683E-02
  9.009533483504463E-02
  1.516263916577698E-01
  2.297472292856392E-01
  3.245738895115967E-01
  4.327537823815130E-01
  5.474230865035488E-01
  6.597173116002921E-01
  7.613573360780878E-01
  8.468788186482017E-01
  9.143549279487388E-01
  9.646983542408224E-01
  1.000921581015107E+00
  1.035765954359416E+00
  1.077307339815920E+00
  1.126323088080594E+00
  1.184052059614691E+00
  1.252018987871093E+00
  1.332030432522468E+00
  1.426215132764581E+00
  1.537079757822341E+00
  1.667575511571469E+00
  1.821176616927126E+00
  2.001972732406741E+00
  2.214777778019187E+00
  2.465258071240011E+00
  2.760083179354434E+00
  3.107103498081180E+00
  3.515559279704735E+00
  3.996326673367403E+00
  4.562207327214552E+00
  5.228269262948323E+00
  6.012248099088668E+00
  6.935019306403396E+00
  8.021154070471299E+00
  9.299573562626305E+00
  1.080431904091554E+01
  1.257545828698149E+01
  1.466015251508122E+01
  1.711391216244977E+01
  2.000207499968098E+01
  2.340154591965655E+01
  2.740284473143647E+01
  3.211251648696611E+01
  3.765596852184503E+01
  4.418080975378389E+01
  5.186078115630346E+01
  6.090038206681981E+01
  7.154031551667266E+01
  8.406389757925713E+01
  9.880460140192457E+01
  1.161549368012451E+02
  1.365769018640916E+02
  1.606142848557775E+02
  1.889071440057466E+02
  2.222088507327334E+02
  2.614061501578221E+02
  3.075427710747556E+02
  3.618473182721883E+02
  4.257626706122541E+02
  5.009999999999877E+02
  5.009999999999877E+02
  4.257638218766256E+02
  3.618471298907895E+02
  3.075425752081259E+02
  2.614059872307525E+02
  2.222087121692263E+02
  1.889070262875573E+02
  1.606141848432658E+02
  1.365768168943083E+02
  1.161548646116888E+02
  9.880454007044165E+01
  8.406384547287698E+01
  7.154027124815347E+01
  6.090034445774894E+01
  5.186074920577563E+01
  4.418078261183042E+01
  3.765594546691808E+01
  3.211249690689448E+01
  2.740282810736859E+01
  2.340153181259572E+01
  2.000206303930030E+01
  1.711390203795401E+01
  1.466014396796311E+01
  1.257545110560618E+01
  1.080431305696308E+01
  9.299568649534253E+00
  8.021150144153436E+00
  6.935016328681835E+00
  6.012246084469771E+00
  5.228268289601374E+00
  4.562207553277474E+00
  3.996328360011053E+00
  3.515562822756726E+00
  3.107109470509612E+00
  2.760092387722605E+00
  2.465271630779871E+00
  2.214797214076861E+00
  2.002000122220858E+00
  1.821214797485199E+00
  1.667628400014182E+00
  1.537152863590503E+00
  1.426316384530629E+00
  1.332171492888089E+00
  1.252217318089078E+00
  1.184334241868175E+00
  1.126729561937875E+00
  1.077891251074309E+00
  1.036547085129410E+00
  1.001714442721657E+00
  9.657343159551353E-01
  9.164215825302672E-01
  8.499281177468924E-01
  7.649772403514874E-01
  6.634738769347801E-01
  5.508595583469496E-01
  4.353747168162171E-01
  3.258639698007239E-01
  2.291734881671694E-01
  1.485535063765045E-01
  8.359785947459072E-02
  3.143463743892909E-02
 -1.135384958641952E-02
 -4.657699364242775E-02
 -7.157440703157100E-02
 -7.991766023293205E-02
 -7.157440703157117E-02
 -4.657699364242802E-02
 -1.135384958641959E-02
  3.143463743892896E-02
  8.359785947459049E-02
  1.485535063765044E-01
  2.291734881671691E-01
  3.258639698007238E-01
  4.353747168162171E-01
  5.508595583469493E-01
  6.634738769347758E-01
  7.649772403513415E-01
  8.499281177444736E-01
  9.164215825089700E-01
  9.657343158490653E-01
  1.001714442390215E+00
  1.036547084166261E+00
  1.077891247621808E+00
  1.126729546534710E+00
  1.184334177503458E+00
  1.252217151974537E+00
  1.332171228400006E+00
  1.426316089868418E+00
  1.537152610871663E+00
  1.667628225414807E+00
  1.821214702179051E+00
  2.002000088834517E+00
  2.214797220792517E+00
  2.465271658851155E+00
  2.760092423907144E+00
  3.107109506786853E+00
  3.515562855039314E+00
  3.996328386766489E+00
  4.562207574427859E+00
  5.228268305772788E+00
  6.012246096537701E+00
  6.935016337526839E+00
  8.021150150549520E+00
  9.299568654112894E+00
  1.080431306021577E+01
  1.257545110790342E+01
  1.466014396957796E+01
  1.711390203908455E+01
  2.000206304008853E+01
  2.340153181314266E+01
  2.740282810774577E+01
  3.211249690715236E+01
  3.765594546709232E+01
  4.418078261194620E+01
  5.186074920585084E+01
  6.090034445779627E+01
  7.154027124818199E+01
  8.406384547289322E+01
  9.880454007045017E+01
  1.161548646116927E+02
  1.365768168943099E+02
  1.606141848432663E+02
  1.889070262875574E+02
  2.222087121692263E+02
  2.614059872307525E+02
  3.075425752081259E+02
  3.618471298907893E+02
  4.257638218766256E+02
  5.009999999999877E+02
  5.009999999999877E+02
  4.257704198797856E+02
  3.618464897618510E+02
  3.075423370801986E+02
  2.614057756004668E+02
  2.222085325576178E+02
  1.889068736900387E+02
  1.606140551975506E+02
  1.365767067484717E+02
  1.161547710329408E+02
  9.880446056726849E+01
  8.406377792875070E+01
  7.154021386526382E+01
  6.090029570925854E+01
  5.186070779534452E+01
  4.418074743935737E+01
  3.765591559962252E+01
  3.211247155502039E+01
  2.740280660393685E+01
  2.340151359677019E+01
  2.000204764307273E+01
  1.711388907600191E+01
  1.466013313070315E+01
  1.257544215566523E+01
  1.080430582953401E+01
  9.299563057390658E+00
  8.021146188483828E+00
  6.935014117389630E+00
  6.012245860186110E+00
  5.228270470389664E+00
  4.562212789887592E+00
  3.996337614603150E+00
  3.515577475366624E+00
  3.107131461472502E+00
  2.760124407573847E+00
  2.465317375563652E+00
  2.214861737242028E+00
  2.002090341919637E+00
  1.821340275137173E+00
  1.667802620731827E+00
  1.537395449919879E+00
  1.426656833332416E+00
  1.332654348767581E+00
  1.252905415004410E+00
  1.185300024647431E+00
  1.128019565041798E+00
  1.079457222011015E+00
  1.038166351598982E+00
  1.002949355115554E+00
  9.667570754700667E-01
  9.183880665400691E-01
  8.533767369606675E-01
  7.695502479360393E-01
  6.684446079795495E-01
  5.554777849293134E-01
  4.388964478786417E-01
  3.275208073108272E-01
  2.280864225373242E-01
  1.435582097847442E-01
  7.322570049738010E-02
  1.430286953963343E-02
 -3.606042822620747E-02
 -7.877412928297654E-02
 -1.096224213568647E-01
 -1.200517057273515E-01
 -1.096224213568649E-01
 -7.877412928297688E-02
 -3.606042822620759E-02
  1.430286953963324E-02
  7.322570049737973E-02
  1.435582097847437E-01
  2.280864225373223E-01
  3.275208073108158E-01
  4.388964478785363E-01
  5.554777849281997E-01
  6.684446079685953E-01
  7.695502478513517E-01
  8.533767364969030E-01
  9.183880648071379E-01
  9.667570709368969E-01
  1.002949346120521E+00
  1.038166334419300E+00
  1.079457184698813E+00
  1.128019470615526E+00
  1.185299768483632E+00
  1.252904855536935E+00
  1.332653485677834E+00
  1.426655860202486E+00
  1.537394599901744E+00
  1.667802025807682E+00
  1.821339948134685E+00
  2.002090226832511E+00
  2.214861759845104E+00
  2.465317471409054E+00
  2.760124531125738E+00
  3.107131585235164E+00
  3.515577585393575E+00
  3.996337705709065E+00
  4.562212861850462E+00
  5.228270525375265E+00
  6.012245901196662E+00
  6.935014147434284E+00
  8.021146210202176E+00
  9.299563072933262E+00
  1.080430584057300E+01
  1.257544216346016E+01
  1.466013313618186E+01
  1.711388907983704E+01
  2.000204764574640E+01
  2.340151359862530E+01
  2.740280660521606E+01
  3.211247155589500E+01
  3.765591560021341E+01
  4.418074743975001E+01
  5.186070779559952E+01
  6.090029570941904E+01
  7.154021386536061E+01
  8.406377792880579E+01
  9.880446056729744E+01
  1.161547710329543E+02
  1.365767067484771E+02
  1.606140551975521E+02
  1.889068736900390E+02
  2.222085325576178E+02
  2.614057756004668E+02
  3.075423370801986E+02
  3.618464897618510E+02
  4.257704198797856E+02
  5.009999999999877E+02
  5.009999999999877E+02
  4.257841073915234E+02
  3.618449330087121E+02
  3.075420993525328E+02
  2.614055126683127E+02
  2.222083120249054E+02
  1.889066862079055E+02
  1.606138959189657E+02
  1.365765714268072E+02
  1.161546560655277E+02
  9.880436289357411E+01
  8.406369494929386E+01
  7.154014337265409E+01
  6.090023582979271E+01
  5.186065693964839E+01
  4.418070426083280E+01
  3.765587895969960E+01
  3.211244049444208E+01
  2.740278031952897E+01
  2.340149142338775E+01
  2.000202904068115E+01
  1.711387362216934E+01
  1.466012051917527E+01
  1.257543220219971E+01
  1.080429848683034E+01
  9.299558441813298E+00
  8.021144622401682E+00
  6.935016192409591E+00
  6.012252528418218E+00
  5.228283173233925E+00
  4.562233636808871E+00
  3.996369628222698E+00
  3.515624924576444E+00
  3.107200312752284E+00
  2.760222940197648E+00
  2.465457038843908E+00
  2.215058403447226E+00
  2.002366291233387E+00
  1.821727624302834E+00
  1.668349254454231E+00
  1.538173444790759E+00
  1.427768410560038E+00
  1.334222231186366E+00
  1.255032412714063E+00
  1.187998673051351E+00
  1.131141767499205E+00
  1.082668281460670E+00
  1.040985327538677E+00
  1.004826390647520E+00
  9.678234997156120E-01
  9.199003110087844E-01
  8.564879663129732E-01
  7.744882556107787E-01
  6.744238545688859E-01
  5.612822537551152E-01
  4.432491804585860E-01
  3.290618577553214E-01
  2.252075626378248E-01
  1.344065083826131E-01
  5.607489263808872E-02
 -1.199323420858582E-02
 -7.187161818691767E-02
 -1.235418216695244E-01
 -1.611768109464311E-01
 -1.739928169287781E-01
 -1.611768109464674E-01
 -1.235418216696306E-01
 -7.187161818715969E-02
 -1.199323420909461E-02
  5.607489263700122E-02
  1.344065083800458E-01
  2.252075626306670E-01
  3.290618577310570E-01
  4.432491803614911E-01
  5.612822533346279E-01
  6.744238528162311E-01
  7.744882493182378E-01
  8.564879482620613E-01
  9.199002705797154E-01
  9.678234269865723E-01
  1.004826279284845E+00
  1.040985160590076E+00
  1.082668011475331E+00
  1.131141285697248E+00
  1.187997737231776E+00
  1.255030713442688E+00
  1.334219748086320E+00
  1.427765586236884E+00
  1.538170902506311E+00
  1.668347419860965E+00
  1.821726591026967E+00
  2.002365917177523E+00
  2.215058465138809E+00
  2.465457333555205E+00
  2.760223323266505E+00
  3.107200697006684E+00
  3.515625266065508E+00
  3.996369910749138E+00
  4.562233859766191E+00
  5.228283343447128E+00
  6.012252655277294E+00
  6.935016285290822E+00
  8.021144689509198E+00
  9.299558489819105E+00
  1.080429852091508E+01
  1.257543222626176E+01
  1.466012053608402E+01
  1.711387363400369E+01
  2.000202904893051E+01
  2.340149142911098E+01
  2.740278032347519E+01
  3.211244049713999E+01
  3.765587896152226E+01
  4.418070426204391E+01
  5.186065694043491E+01
  6.090023583028776E+01
  7.154014337295268E+01
  8.406369494946381E+01
  9.880436289366341E+01
  1.161546560655696E+02
  1.365765714268238E+02
  1.606138959189706E+02
  1.889066862079063E+02
  2.222083120249054E+02
  2.614055126683127E+02
  3.075420993525328E+02
  3.618449330087121E+02
  4.257841073915234E+02
  5.009999999999877E+02
  5.009999999999877E+02
  4.258036996237930E+02
  3.618423527130211E+02
  3.075419160852524E+02
  2.614052161244457E+02
  2.222080682171011E+02
  1.889064786534995E+02
  1.606137196024146E+02
  1.365764216296264E+02
  1.161545288011975E+02
  9.880425477544614E+01
  8.406360310210104E+01
  7.154006535662454E+01
  6.090016957671040E+01
  5.186060069924407E+01
  4.418065655628302E+01
  3.765583855134089E+01
  3.211240635115242E+01
  2.740275159761227E+01
  2.340146745325083E+01
  2.000200932215847E+01
  1.711385783008399E+01
  1.466010852169731E+01
  1.257542409587003E+01
  1.080429465388311E+01
  9.299559637809304E+00
  8.021152105378908E+00
  6.935031909021140E+00
  6.012279378203577E+00
  5.228325379767509E+00
  4.562297264881921E+00
  3.996463301285711E+00
  3.515760820738781E+00
  3.107395562173478E+00
  2.760501645799970E+00
  2.465853392612489E+00
  2.215621928734665E+00
  2.003170865449290E+00
  1.822884715914958E+00
  1.670019297552706E+00
  1.540558400011889E+00
  1.431065484075151E+00
  1.338537848978028E+00
  1.260290058620450E+00
  1.193892314069763E+00
  1.137164757372904E+00
  1.088201758764580E+00
  1.045399642661698E+00
  1.007546626061531E+00
  9.689505052577171E-01
  9.206448060644375E-01
  8.583263143505756E-01
  7.783893620971479E-01
  6.800702360115238E-01
  5.671328071175744E-01
  4.471256230705338E-01
  3.285000100203075E-01
  2.176255504047453E-01
  1.174526912840067E-01
  2.806736572933891E-02
 -5.186427279264934E-02
 -1.235658228122992E-01
 -1.860460476478028E-01
 -2.317188470087480E-01
 -2.473492111262413E-01
 -2.317188470216173E-01
 -1.860460476828611E-01
 -1.235658228858931E-01
 -5.186427293237501E-02
  2.806736546892905E-02
  1.174526907783107E-01
  2.176255493328027E-01
  3.285000074779546E-01
  4.471256164119018E-01
  5.671327888979748E-01
  6.800701879825277E-01
  7.783892492538304E-01
  8.583260890638215E-01
  9.206444257098667E-01
  9.689499466400435E-01
  1.007545882946614E+00
  1.045398667261812E+00
  1.088200419845443E+00
  1.137162803971282E+00
  1.193889270835962E+00
  1.260285349345286E+00
  1.338531411513115E+00
  1.431058178731718E+00
  1.540551617175003E+00
  1.670014182111736E+00
  1.822881694359941E+00
  2.003169696302689E+00
  2.215622042920534E+00
  2.465854211494277E+00
  2.760502737786195E+00
  3.107396664522200E+00
  3.515761801563182E+00
  3.996464112343610E+00
  4.562297904280534E+00
  5.228325867376346E+00
  6.012279741256556E+00
  6.935032174609938E+00
  8.021152297135719E+00
  9.299559774906758E+00
  1.080429475118049E+01
  1.257542416453261E+01
  1.466010856993409E+01
  1.711385786383738E+01
  2.000200934568298E+01
  2.340146746956954E+01
  2.740275160886308E+01
  3.211240635884370E+01
  3.765583855653671E+01
  4.418065655973537E+01
  5.186060070148606E+01
  6.090016957812152E+01
  7.154006535747570E+01
  8.406360310258552E+01
  9.880425477570071E+01
  1.161545288013169E+02
  1.365764216296737E+02
  1.606137196024286E+02
  1.889064786535018E+02
  2.222080682171009E+02
  2.614052161244455E+02
  3.075419160852524E+02
  3.618423527130211E+02
  4.258036996237930E+02
  5.009999999999877E+02
  5.009999999999877E+02
  4.258261740221837E+02
  3.618390977988079E+02
  3.075418030733928E+02
  2.614049143741714E+02
  2.222078247264057E+02
  1.889062710825017E+02
  1.606135432872905E+02
  1.365762718342130E+02
  1.161544015417322E+02
  9.880414666877239E+01
  8.406351127906593E+01
  7.153998738746373E+01
  6.090010340900276E+01
  5.186054460704639E+01
  4.418060909962055E+01
  3.765579854573277E+01
  3.211237284744733E+01
  2.740272387315144E+01
  2.340144501634239E+01
  2.000199193314321E+01
  1.711384554404361E+01
  1.466010176029807E+01
  1.257542375921568E+01
  1.080430228793564E+01
  9.299577679425319E+00
  8.021184236006089E+00
  6.935083560636425E+00
  6.012358452796533E+00
  5.228443269509381E+00
  4.562470300061821E+00
  3.996714821582529E+00
  3.516124204500919E+00
  3.107918884889083E+00
  2.761255422808286E+00
  2.466943958566485E+00
  2.217212116364024E+00
  2.005501694094543E+00
  1.826276174253505E+00
  1.674819922970713E+00
  1.547034079078371E+00
  1.439264315869526E+00
  1.348200063801071E+00
  1.270853432772853E+00
  1.204586928746693E+00
  1.147145521798697E+00
  1.096663628579426E+00
  1.051646518559573E+00
  1.011005765904633E+00
  9.696921035962976E-01
  9.197759166618278E-01
  8.573768007706695E-01
  7.787802158857888E-01
  6.821108064933927E-01
  5.693309660154369E-01
  4.464772378251723E-01
  3.213303991545081E-01
  2.004044240042465E-01
  8.741479354685697E-02
 -1.647755225578340E-02
 -1.115445678187092E-01
 -1.980591726876780E-01
 -2.739134477161557E-01
 -3.294514497291443E-01
 -3.485524010782904E-01
 -3.294514503894366E-01
 -2.739134494405505E-01
 -1.980591761311883E-01
 -1.115445739793384E-01
 -1.647756286086480E-02
  8.741477515817658E-02
  2.004043908254796E-01
  3.213303357535999E-01
  4.464771103165797E-01
  5.693307055303116E-01
  6.821102949780893E-01
  7.787792989126686E-01
  8.573753383504891E-01
  9.197738318414777E-01
  9.696893855518647E-01
  1.011002437181850E+00
  1.051642478632044E+00
  1.096658592160804E+00
  1.147139004037244E+00
  1.204578107823490E+00
  1.270841359462312E+00
  1.348184627290009E+00
  1.439247027624282E+00
  1.547017649780205E+00
  1.674806958810577E+00
  1.826268038616097E+00
  2.005498226538654E+00
  2.217212135710284E+00
  2.466946012637043E+00
  2.761258315800699E+00
  3.107921852419495E+00
  3.516126856857225E+00
  3.996717015609093E+00
  4.562472027866283E+00
  5.228444585266214E+00
  6.012359431105608E+00
  6.935084275454767E+00
  8.021184751597678E+00
  9.299578047755030E+00
  1.080430254917130E+01
  1.257542394347716E+01
  1.466010188969489E+01
  1.711384563456096E+01
  2.000199199621488E+01
  2.340144506008683E+01
  2.740272390330669E+01
  3.211237286806006E+01
  3.765579855965667E+01
  4.418060910887176E+01
  5.186054461305405E+01
  6.090010341278396E+01
  7.153998738974447E+01
  8.406351128036417E+01
  9.880414666945458E+01
  1.161544015420522E+02
  1.365762718343396E+02
  1.606135432873282E+02
  1.889062710825078E+02
  2.222078247264052E+02
  2.614049143741710E+02
  3.075418030733928E+02
  3.618390977988079E+02
  4.258261740221837E+02
  5.009999999999877E+02
  5.009999999999877E+02
  4.258506323541493E+02
  3.618353245876793E+02
  3.075417434205338E+02
  2.614046090905853E+02
  2.222075813983155E+02
  1.889060635078926E+02
  1.606133669732552E+02
  1.365761220430934E+02
  1.161542742942195E+02
  9.880403859057074E+01
  8.406341951630230E+01
  7.153990953540011E+01
  6.090003745472215E+01
  5.186048888545498E+01
  4.418056226293284E+01
  3.765575954755617E+01
  3.211234094381306E+01
  2.740269864449170E+01
  2.340142641668817E+01
  2.000198037599229E+01
  1.711384203881600E+01
  1.466010811961348E+01
  1.257544290619124E+01
  1.080433870547923E+01
  9.299638061854681E+00
  8.021278430070911E+00
  6.935225923015130E+00
  6.012569813705499E+00
  5.228753798077521E+00
  4.562923774235816E+00
  3.997375289084755E+00
  3.517087170961766E+00
  3.109331024260246E+00
  2.763346584552431E+00
  2.470065474212852E+00
  2.221852567915989E+00
  2.012233450503234E+00
  1.835607155436316E+00
  1.686990465941239E+00
  1.561856908983669E+00
  1.456094633745269E+00
  1.366045156620270E+00
  1.288555512825345E+00
  1.220996199154057E+00
  1.161235255614869E+00
  1.107581643600600E+00
  1.058719573093452E+00
  1.013710807608029E+00
  9.680524254034319E-01
  9.146661540774227E-01
  8.500791641159487E-01
  7.706775879112535E-01
  6.738433557496344E-01
  5.597573489016590E-01
  4.324115695053150E-01
  2.984242424028117E-01
  1.644397319137045E-01
  3.521095365874920E-02
 -8.676084647132365E-02
 -2.004976328064810E-01
 -3.051558295817394E-01
 -3.972893956982296E-01
 -4.647802786056254E-01